ITEM: TIMESTEP
0
ITEM: NUMBER OF ATOMS
581
ITEM: BOX BOUNDS
-91.56251013 100.29799150
-77.63575499 84.29175046
-74.11641309 81.81384903
ITEM: ATOMS id type x y z x4 x5 x6 x7 x8 ENi EAl MNi Y10Ni dis axR axG axB 
1 3 24.808121 2.838141 21.565082 -16.611313 4.056231 1.428988 -3.034376 10.033364 1.218000 0.463000 121.000000 -2.072744 36.869898 1.000000 0.000000 0.000000
2 9 48.866824 -6.680985 -9.178598 0.727390 6.765381 -17.540578 -5.558186 -6.861610 0.958000 0.324000 106.000000 -1.229906 36.869898 1.000000 0.000000 0.000000
3 12 -23.952075 37.304824 0.780211 10.085358 -26.932839 -9.212449 -2.593943 6.499924 0.064000 0.058000 0.100000 -1.434141 60.000000 0.007088 0.000000 1.000000
4 12 5.041805 33.751081 14.720613 -6.500181 -16.670971 0.889823 0.245817 -9.195307 0.879000 0.324000 210.000000 -2.932945 60.000000 0.007088 0.000000 1.000000
5 12 -4.509199 21.198300 -20.043716 10.970675 10.141389 30.844918 -4.049737 -5.496971 1.005000 0.307000 1489.000000 -6.353870 60.000000 0.007088 0.000000 1.000000
6 3 9.387355 3.915375 27.418947 -14.284123 8.459563 1.439251 -5.173377 8.148567 1.285000 0.446000 107.000000 -0.258253 36.869898 1.000000 0.000000 0.000000
7 3 36.604687 -2.337356 14.587519 -13.851009 -2.729820 1.767284 -1.595548 7.373774 1.201000 0.477000 134.000000 NaN 22.619865 1.000000 0.000000 0.000000
8 9 47.950167 -11.771882 -4.179275 -3.271887 0.148624 -10.343940 -4.867355 -6.213945 0.884000 0.333000 151.000000 -1.141248 22.619865 1.000000 0.000000 0.000000
9 10 17.835456 15.787462 22.575313 -13.272199 -4.808329 3.519815 -2.845028 -3.496220 1.144000 0.402000 91.000000 -1.954467 48.189685 0.965366 1.000000 0.000000
10 1 6.879435 -6.177909 -19.173975 17.632423 -3.101502 -10.590181 -10.989400 -10.158501 0.978000 0.314000 114.000000 -1.872232 36.869898 1.000000 0.000000 0.000000
11 1 14.666285 21.321765 -2.371974 -16.073737 13.259330 -7.197229 -7.894905 -12.686897 0.809000 0.327000 1749.000000 -6.676644 60.000000 0.007088 0.000000 1.000000
12 1 10.942871 2.274229 -12.983556 21.255005 15.873339 0.486211 5.389233 -12.469206 1.298000 0.457000 104.000000 -2.732445 48.189685 0.965366 1.000000 0.000000
13 1 15.367589 17.022867 -5.047681 2.942443 23.380165 2.422692 -14.013949 2.646540 0.692000 0.282000 1627.000000 -6.692644 60.000000 0.007088 0.000000 1.000000
14 1 -2.697775 10.496172 -1.959316 6.066914 -15.541429 -7.819229 10.913413 18.721662 1.265000 0.474000 104.000000 -4.198373 48.189685 0.965366 1.000000 0.000000
15 1 -6.676466 6.461942 -6.162406 -15.249575 -0.871806 -6.097971 17.714463 13.330095 1.283000 0.433000 115.000000 -1.901530 36.869898 1.000000 0.000000 0.000000
16 3 1.335359 2.800531 29.355116 -10.342347 9.868308 0.954266 -5.331468 6.013335 1.180000 0.459000 210.000000 -3.093125 28.072487 1.000000 0.000000 0.000000
17 9 48.391143 -9.904790 -6.049591 -1.686841 2.767009 -13.034971 -5.163906 -6.483077 0.938000 0.339000 131.000000 NaN 28.072487 1.000000 0.000000 0.000000
18 1 13.222263 11.091398 -15.081500 5.869890 9.657087 -12.592184 2.684873 7.965234 0.810000 0.325000 643.000000 -2.277892 60.000000 0.007088 0.000000 1.000000
19 2 -18.584691 18.425112 20.790141 14.148916 -16.043774 -3.832818 5.454743 -1.778355 1.160000 0.426000 76.000000 -1.549849 38.942441 0.000000 1.000000 0.011080
20 1 8.726135 14.963323 -11.651311 16.221024 23.414020 -1.781862 7.448069 10.527000 0.615000 0.256000 463.000000 -2.226736 60.000000 0.007088 0.000000 1.000000
21 2 31.291285 16.756174 14.445164 -12.491982 -11.401860 6.384620 0.380274 -6.088811 0.895000 0.307000 81.000000 -1.497986 38.942441 0.000000 1.000000 0.011080
22 1 -20.300768 20.410250 -17.559919 -4.820198 -15.664509 12.763399 4.195617 3.851428 1.154000 0.466000 148.000000 -3.046184 38.942441 0.000000 1.000000 0.011080
23 1 1.958935 3.130482 4.240409 5.740574 8.058825 5.490044 -9.211889 -11.996333 1.234000 0.483000 125.000000 -2.550534 38.942441 0.000000 1.000000 0.011080
24 8 -13.649293 13.169174 5.731799 21.281445 28.713934 11.612550 -3.642876 -5.361442 1.328000 0.525000 120.000000 -2.894982 38.942441 0.000000 1.000000 0.011080
25 4 -11.313333 7.984130 29.149835 2.210198 -1.727180 0.351410 -0.584713 -4.978951 1.075000 0.441000 544.000000 -5.373041 21.786789 0.007088 0.000000 1.000000
26 5 -9.196779 3.774959 -21.239808 3.304671 2.421765 23.749092 -2.432913 -6.639195 1.205000 0.473000 89.000000 -3.482841 38.213211 0.007088 0.000000 1.000000
27 6 -0.208942 25.808876 -6.377712 4.441664 -2.235907 24.007234 -5.964569 -5.257526 1.000000 0.382000 1368.000000 -6.645391 60.000000 0.007088 0.000000 1.000000
28 4 -4.109733 19.979449 25.499298 -0.774892 -9.204917 -0.275837 -2.190187 -8.538487 1.187000 0.439000 106.000000 -2.236985 38.213211 0.007088 0.000000 1.000000
29 5 -12.647093 -8.001340 -20.750623 -1.633695 -2.424390 14.910421 -3.604158 -5.397986 1.160000 0.445000 220.000000 -1.183517 21.786789 0.007088 0.000000 1.000000
30 6 2.796086 29.285917 4.235473 -0.108146 -10.193591 15.439897 -4.345217 -6.636461 0.978000 0.376000 1014.000000 -6.692644 60.000000 0.007088 0.000000 1.000000
31 7 -35.974993 19.040659 -16.848323 -12.153242 -14.150236 -9.972547 3.576067 -0.022403 0.489000 0.270000 0.100000 -0.519833 21.786789 0.007088 0.000000 1.000000
32 7 -31.476350 28.534173 -11.574128 -3.476873 -22.060952 -11.006761 0.491073 2.255394 0.489000 0.270000 0.100000 -1.164239 38.213211 0.007088 0.000000 1.000000
33 2 22.455679 24.487345 16.161721 -11.577916 -12.492921 5.190428 0.890333 -8.109219 0.424000 0.129000 722.000000 -1.974865 50.478804 0.000000 1.000000 0.011080
34 2 -19.625445 26.352465 14.588754 14.273776 -21.276647 -6.276144 4.605836 0.427140 0.980000 0.361000 49.000000 -1.119754 50.478804 0.000000 1.000000 0.011080
35 8 -11.272175 18.932138 -5.576540 20.686341 26.253505 18.678700 -4.737726 -6.728487 1.242000 0.494000 115.000000 -1.808133 50.478804 0.000000 1.000000 0.011080
36 3 40.595197 -6.061784 11.046398 -11.953403 -5.909160 1.529834 -1.725204 4.355345 1.099000 0.449000 224.000000 -0.767440 16.260205 1.000000 0.000000 0.000000
37 1 10.124453 -7.178840 12.884023 3.182047 4.503995 13.787906 5.180538 9.880688 1.306000 0.510000 116.000000 -2.057445 36.869898 1.000000 0.000000 0.000000
38 1 31.000456 5.319272 -16.151197 2.337576 8.836625 -19.301244 -0.019949 0.861988 1.365000 0.501000 134.000000 -1.811432 48.189685 0.965366 1.000000 0.000000
39 9 47.389576 -13.890174 -1.995092 -5.112539 -2.898196 -7.202011 -4.507087 -5.881213 0.802000 0.314000 260.000000 -2.800494 16.260205 1.000000 0.000000 0.000000
40 3 -3.373088 1.596668 30.127455 -7.288731 10.210863 0.719413 -4.760223 4.771717 1.091000 0.421000 388.000000 -2.522235 22.619865 1.000000 0.000000 0.000000
41 3 15.804732 4.131546 25.186369 -15.915727 7.131219 1.447772 -4.645789 9.242500 1.345000 0.491000 120.000000 -3.633634 43.602819 1.000000 0.000000 0.000000
42 9 49.118499 -4.106937 -11.601929 2.499335 9.745926 -21.002457 -5.790635 -7.126163 0.982000 0.338000 99.000000 -0.680665 43.602819 1.000000 0.000000 0.000000
43 10 3.280703 10.539837 28.311337 -9.215922 1.108891 1.821755 -4.827256 -1.695292 1.179000 0.473000 190.000000 -3.086533 33.557310 1.000000 0.000000 0.885164
44 1 6.755673 9.454986 -13.158726 15.369649 20.344861 -0.212049 17.948272 -11.110375 1.252000 0.472000 116.000000 -2.280432 50.478804 0.000000 1.000000 0.011080
45 1 9.812608 18.116651 -9.335746 11.475735 18.619970 0.438285 -15.284380 13.545679 0.603000 0.248000 1455.000000 -6.812445 60.000000 0.007088 0.000000 1.000000
46 1 5.396262 -6.301707 -22.008243 12.896303 -7.048154 -15.435068 -11.465502 1.495859 1.133000 0.433000 149.000000 -2.811413 33.557310 1.000000 0.000000 0.885164
47 1 14.735520 24.050429 -5.632465 -18.534238 6.078702 -12.645098 3.596142 -10.824060 0.874000 0.354000 1930.000000 -6.830794 60.000000 0.007088 0.000000 1.000000
48 1 -7.535751 6.897486 -10.765848 -22.462483 12.718269 -8.309583 14.404750 3.445199 1.375000 0.515000 111.000000 -2.098828 33.557310 1.000000 0.000000 0.885164
49 1 0.655882 14.639587 -2.492831 20.786224 -16.403101 -11.673190 1.121155 13.701265 1.180000 0.455000 93.000000 -1.923053 50.478804 0.000000 1.000000 0.011080
50 2 -8.781101 37.432190 10.433469 0.548733 -21.279299 -3.199487 -0.664858 -4.723629 0.919000 0.331000 434.000000 -3.002556 61.927513 0.000000 0.872167 1.000000
51 2 -14.016101 37.950407 7.955467 3.724639 -23.357614 -4.652229 -0.967456 -1.487919 0.849000 0.314000 461.000000 -2.849729 61.927513 0.000000 0.872167 1.000000
52 3 32.457084 0.195110 17.328508 -15.498697 -0.052542 1.679721 -1.956683 9.182700 1.241000 0.481000 139.000000 -1.186919 28.072487 1.000000 0.000000 0.000000
53 1 -2.155420 18.963429 -20.921129 5.304688 -0.542665 37.758866 -0.233065 -1.075378 0.910000 0.348000 168.000000 -2.544911 61.927513 0.000000 0.872167 1.000000
54 10 -13.610729 23.972254 20.741203 8.263586 -16.882559 -2.653994 2.389686 -5.194564 1.263000 0.476000 85.000000 -1.382223 43.233235 0.000000 1.000000 0.892487
55 1 -19.281482 15.463617 -5.860964 1.193352 -0.610679 -6.722080 23.183810 -7.419650 1.179000 0.415000 107.000000 -1.390704 36.869898 1.000000 0.000000 0.000000
56 1 -20.392882 16.594918 -4.005377 1.686341 -2.232486 -6.699130 -11.779844 17.543308 0.682000 0.307000 158.000000 -2.618392 38.213211 0.007088 0.000000 1.000000
57 1 19.500950 8.211141 -11.397253 -2.283064 0.969045 18.888754 -5.979530 -0.994712 0.955000 0.400000 724.000000 -5.270702 43.233235 0.000000 1.000000 0.892487
58 1 16.491317 1.305800 -15.229218 4.402738 -2.217867 17.933865 0.953826 -6.353423 1.197000 0.466000 217.000000 -3.518630 38.213211 0.007088 0.000000 1.000000
59 1 -10.195056 22.664520 -1.532611 -7.405964 8.975837 -6.595001 -12.710211 -13.343107 1.254000 0.479000 113.000000 -3.824012 43.233235 0.000000 1.000000 0.892487
60 1 -13.718868 5.337612 -13.814144 12.954141 -2.040992 -8.563653 -9.363640 -14.948775 1.065000 0.365000 107.000000 -2.109159 36.869898 1.000000 0.000000 0.000000
61 3 -6.370247 0.487122 30.494318 -5.162175 10.193893 0.645865 -4.111746 3.988297 1.019000 0.407000 612.000000 -3.065297 18.924644 1.000000 0.000000 0.000000
62 9 47.631977 -13.010493 -2.910035 -4.341480 -1.624485 -8.517410 -4.660467 -6.024040 0.844000 0.324000 202.000000 NaN 18.924644 1.000000 0.000000 0.000000
63 2 -18.685958 9.540223 25.458677 12.052831 -8.990595 -1.433773 4.910028 -2.843753 1.139000 0.419000 98.000000 -1.402505 26.525352 0.000000 1.000000 0.011080
64 2 38.712664 6.695589 11.256036 -11.111857 -11.629481 6.077382 -0.586898 -4.173628 0.994000 0.347000 85.000000 NaN 26.525352 0.000000 1.000000 0.011080
65 8 -15.578813 5.579868 15.505582 17.042075 24.420055 5.469921 -3.348743 -4.280113 1.300000 0.516000 135.000000 -2.450389 26.525352 0.000000 1.000000 0.011080
66 4 -6.876108 15.610310 27.164300 0.312263 -6.580544 -0.129403 -1.502698 -7.630208 1.217000 0.444000 74.000000 -2.198766 32.204228 0.007088 0.000000 1.000000
67 5 -11.431858 -3.981865 -20.867039 0.088206 -0.800301 18.539570 -3.013479 -6.007168 1.229000 0.466000 117.000000 -3.213888 27.795773 0.007088 0.000000 1.000000
68 6 1.751995 27.934685 0.629329 1.489121 -7.464969 18.996732 -5.221400 -6.035914 0.988000 0.384000 1196.000000 -6.676644 60.000000 0.007088 0.000000 1.000000
69 4 -8.818789 12.386027 28.103981 1.134380 -4.515410 0.093376 -1.168136 -6.648524 1.157000 0.449000 160.000000 -3.613401 27.795773 0.007088 0.000000 1.000000
70 5 -10.500593 -0.814067 -21.006706 1.417690 0.478838 20.891137 -2.637376 -6.418071 1.233000 0.447000 96.000000 -2.604501 32.204228 0.007088 0.000000 1.000000
71 6 0.942844 26.997157 -2.241509 2.681029 -5.327344 21.274473 -5.759537 -5.617270 0.994000 0.378000 1395.000000 -6.830794 60.000000 0.007088 0.000000 1.000000
72 7 -33.218112 25.249125 -14.092504 -7.088753 -19.888051 -11.064228 1.562956 1.339684 0.498000 0.283000 0.100000 -0.863603 32.204228 0.007088 0.000000 1.000000
73 7 -34.414466 22.730660 -15.430371 -9.563175 -17.685331 -10.756031 2.218327 0.822685 0.498000 0.282000 0.100000 -0.974026 27.795773 0.007088 0.000000 1.000000
74 3 42.387247 -8.473553 9.016899 -11.124595 -7.590801 1.315444 -2.011999 2.387299 1.001000 0.419000 507.000000 -0.245134 12.680383 1.000000 0.000000 0.000000
75 9 47.019647 -15.013224 -0.810196 -6.180716 -4.701057 -5.497039 -4.237618 -5.608168 0.731000 0.292000 381.000000 -3.234497 12.680383 1.000000 0.000000 0.000000
76 10 8.653871 18.464650 24.631419 -9.633036 -5.895370 2.542215 -2.998986 -6.278769 1.085000 0.395000 137.000000 -3.218376 44.415309 0.797574 0.000000 1.000000
77 1 5.346272 -0.068551 -24.116413 8.968881 -2.177109 -1.529993 -11.626646 9.411720 0.824000 0.344000 200.000000 -4.175989 38.213211 0.007088 0.000000 1.000000
78 1 14.098159 24.066323 -11.349597 -8.224166 3.200916 -0.036733 12.870240 -9.522256 0.935000 0.379000 1828.000000 -7.182192 60.000000 0.007088 0.000000 1.000000
79 1 -4.682505 15.187063 -17.960953 0.455085 15.932665 -2.246611 25.421834 -10.550540 1.239000 0.440000 89.000000 -1.811554 44.415309 0.797574 0.000000 1.000000
80 1 -0.979749 21.976521 -12.888296 14.663567 3.941808 -2.976203 -16.403937 19.795098 0.473000 0.205000 938.000000 -6.585672 60.000000 0.007088 0.000000 1.000000
81 1 -7.921300 11.179025 -15.738611 16.183291 -13.998454 -16.535412 -12.369521 4.136628 1.102000 0.443000 114.000000 -4.236369 44.415309 0.797574 0.000000 1.000000
82 1 -8.762227 19.828893 -11.325873 -20.058435 8.863048 -13.437421 6.786279 -10.803136 1.097000 0.400000 201.000000 -4.611188 38.213211 0.007088 0.000000 1.000000
83 1 4.923873 6.737502 -21.707569 -1.205218 4.459964 -4.420001 4.243003 10.917064 1.280000 0.481000 109.000000 -1.221526 48.189685 0.965366 1.000000 0.000000
84 1 9.898087 19.559318 -13.016715 3.118541 -1.776895 -4.788049 8.654615 7.895284 0.941000 0.380000 1441.000000 -0.783553 60.000000 0.007088 0.000000 1.000000
85 10 -9.179187 31.927045 16.380215 3.483826 -18.985109 -2.855274 0.340038 -6.265842 1.126000 0.420000 96.000000 -1.505799 53.130102 0.000000 0.872167 1.000000
86 1 -23.178176 8.303878 -17.808014 3.549953 -12.005182 -14.288408 -8.537530 -8.414847 1.109000 0.452000 111.000000 -2.398876 28.624551 1.000000 0.000000 0.885164
87 1 -18.474047 27.298024 -6.139511 -11.425367 -5.528142 -13.034417 -6.211122 -11.751724 1.156000 0.470000 102.000000 -5.815832 38.942441 0.000000 1.000000 0.011080
88 1 11.125599 1.302062 -14.858584 20.604179 14.077114 -3.031936 -2.485639 -3.452166 1.217000 0.460000 105.000000 -1.524821 48.189685 0.965366 1.000000 0.000000
89 1 16.071090 17.574908 -4.537721 1.210957 23.129060 -0.683284 -2.516019 -0.275410 0.735000 0.298000 1727.000000 -6.676644 60.000000 0.007088 0.000000 1.000000
90 1 -7.957719 9.014727 -6.314898 17.350916 -9.939068 5.927450 1.418005 7.584408 1.245000 0.488000 106.000000 -2.777400 38.942441 0.000000 1.000000 0.011080
91 1 -9.898361 13.844030 -5.195679 -14.132825 10.566055 8.002673 3.884528 0.942600 1.274000 0.480000 104.000000 -2.001444 36.869898 0.000000 0.872167 1.000000
92 1 -8.841892 5.837137 -2.395189 6.188293 -1.372081 1.500535 18.936207 4.071985 1.153000 0.433000 107.000000 -1.921823 36.869898 1.000000 0.000000 0.000000
93 1 -8.967922 12.602246 0.907336 -2.640057 2.134922 1.392210 -3.191480 16.191291 1.156000 0.451000 139.000000 -2.154510 38.942441 0.000000 1.000000 0.011080
94 10 -0.674897 8.535077 29.266238 -7.068691 2.743553 1.398207 -4.318624 -1.412253 1.133000 0.474000 317.000000 -3.345573 28.624551 1.000000 0.000000 0.885164
95 1 13.155223 17.303569 -8.677676 -1.526887 -6.824979 23.277933 6.832117 -5.159084 1.033000 0.400000 169.000000 -2.344241 53.130102 0.000000 0.872167 1.000000
96 1 5.297981 -0.190262 -19.443781 0.553902 -4.557886 22.666378 -5.330387 4.944617 1.151000 0.431000 175.000000 -4.207737 38.942441 0.000000 1.000000 0.011080
97 1 11.029104 1.151098 -2.198931 -1.329581 -3.208790 2.300147 5.417564 10.561278 1.234000 0.446000 126.000000 -1.811554 48.189685 0.965366 1.000000 0.000000
98 1 -25.869405 12.160840 -20.857874 -2.555367 7.923311 4.762367 7.183982 -11.067886 1.251000 0.455000 94.000000 -1.822755 28.624551 1.000000 0.000000 0.885164
99 1 -17.657691 31.630123 -6.083999 11.561461 -4.409680 3.599251 -12.581288 3.267085 1.106000 0.441000 116.000000 -2.709952 53.130102 0.000000 0.872167 1.000000
100 1 -24.906414 18.389926 -3.913013 3.785488 1.177447 -5.087973 -12.454710 6.241272 1.142000 0.467000 116.000000 -1.742627 36.869898 0.000000 0.872167 1.000000
101 1 -24.566795 17.377606 -6.938067 3.737116 1.483356 -5.409407 10.814626 -10.812299 1.162000 0.400000 102.000000 -3.012675 36.869898 1.000000 0.000000 0.000000
102 1 21.665184 -8.742612 7.459903 1.174837 1.868287 14.863914 4.222715 8.379124 1.277000 0.513000 122.000000 -0.996417 36.869898 1.000000 0.000000 0.000000
103 3 -8.434614 -0.445932 30.669404 -3.668341 10.063784 0.640936 -3.632090 3.386424 0.939000 0.382000 834.000000 -2.658974 16.260205 1.000000 0.000000 0.000000
104 1 24.973090 3.108540 -6.462189 11.709969 20.116515 -1.881567 1.586977 5.842607 1.242000 0.468000 126.000000 -2.140977 51.683866 0.000000 1.000000 0.892487
105 1 6.693528 10.953088 -16.592986 1.058456 -5.181777 33.008136 0.131636 -0.823828 0.998000 0.389000 167.000000 -3.070456 51.683866 0.000000 1.000000 0.892487
106 1 8.343461 5.873950 -8.723903 11.044475 0.267980 -13.328285 -2.316771 10.480943 1.238000 0.477000 137.000000 -1.705398 51.683866 0.000000 1.000000 0.892487
107 1 7.859727 9.505089 -7.211417 -6.431823 9.231265 -10.981394 9.393222 6.731678 1.035000 0.402000 106.000000 -2.279259 51.683866 0.000000 1.000000 0.892487
108 1 -21.105497 12.301616 4.007530 6.713255 7.826092 -4.283611 -4.290068 -5.300847 1.044000 0.369000 79.000000 -1.391428 36.869898 1.000000 0.000000 0.000000
109 10 -13.321659 30.230646 16.260851 7.117772 -20.019101 -4.036072 1.179202 -4.326211 1.096000 0.413000 97.000000 -1.402099 51.683866 0.000000 1.000000 0.892487
110 1 -27.772232 1.903738 -20.885690 -4.819358 -3.646538 -4.906197 -1.009793 -9.467805 0.916000 0.357000 143.000000 -2.508380 16.260205 1.000000 0.000000 0.000000
111 1 -15.779184 34.305820 -0.711264 -0.595158 -13.003802 -5.501791 -8.785971 -5.325067 1.098000 0.426000 139.000000 -3.895166 51.683866 0.000000 1.000000 0.892487
112 3 4.753049 3.417702 28.622232 -12.307842 9.357904 1.228258 -5.401667 6.946188 1.255000 0.480000 131.000000 -2.946561 31.890792 1.000000 0.000000 0.000000
113 9 48.629514 -8.537020 -7.392741 -0.619873 4.540894 -14.964768 -5.353725 -6.655199 0.962000 0.345000 112.000000 -1.087850 31.890792 1.000000 0.000000 0.000000
114 2 35.976732 10.993505 12.718748 -11.924777 -11.367300 6.491321 -0.079040 -4.818945 0.941000 0.334000 0.100000 -1.547121 31.586338 0.000000 1.000000 0.011080
115 1 -6.539149 -0.352564 -16.189355 -12.578005 3.997350 -5.786903 10.097340 5.765162 0.938000 0.359000 65.000000 -1.761774 38.942441 0.000000 1.000000 0.011080
116 1 3.484888 19.577326 -1.583394 9.024064 -13.551842 -7.385268 -0.862410 13.209192 0.903000 0.350000 598.000000 -2.295014 60.000000 0.007088 0.000000 1.000000
117 2 -18.555217 13.143933 23.777385 13.119944 -12.013477 -2.307975 5.204028 -2.534299 1.191000 0.454000 93.000000 -1.681256 31.586338 0.000000 1.000000 0.011080
118 1 -10.987555 19.066582 -20.355478 -5.963383 15.695133 -2.562152 20.168675 -1.660008 1.082000 0.412000 75.000000 -2.177716 38.942441 0.000000 1.000000 0.011080
119 1 -6.887240 23.816497 -14.528546 18.283049 -1.089821 -4.128720 -7.625913 17.891151 0.410000 0.184000 320.000000 -2.829201 60.000000 0.007088 0.000000 1.000000
120 1 29.319998 -2.521191 -4.520832 14.810683 -2.775962 -13.777131 -4.713710 6.717714 1.280000 0.504000 103.000000 -3.582719 35.430945 0.965366 1.000000 0.000000
121 1 27.562473 -1.016865 -5.915961 -12.543151 14.515684 -11.576249 8.550621 -1.949790 1.343000 0.505000 166.000000 -2.680338 38.942441 0.000000 1.000000 0.011080
122 1 -1.543617 -2.887204 0.286438 2.312886 3.523235 -0.837505 -4.921225 16.537487 1.310000 0.499000 105.000000 -1.938776 35.430945 0.965366 1.000000 0.000000
123 1 3.575885 7.253205 8.897767 2.469726 0.725799 0.740212 18.357035 3.718726 1.112000 0.431000 169.000000 -5.511511 38.942441 0.000000 1.000000 0.011080
124 10 28.941020 10.139164 18.587048 -14.550963 -5.454092 4.195226 -2.300134 -0.241121 1.207000 0.454000 123.000000 -1.384776 35.430945 0.965366 1.000000 0.000000
125 1 23.567519 -7.880419 -6.839706 0.067386 11.385659 -10.016918 14.643552 -2.764112 1.309000 0.521000 140.000000 -1.987920 31.586338 0.000000 1.000000 0.011080
126 1 29.383850 4.823797 0.483510 5.620273 3.218788 -10.369424 -5.911137 13.001849 1.332000 0.507000 150.000000 -2.853886 38.942441 0.000000 1.000000 0.011080
127 1 14.119644 21.302554 -9.900795 -9.923648 3.350484 -11.645208 4.719454 -1.508961 0.900000 0.364000 1734.000000 -7.082109 60.000000 0.007088 0.000000 1.000000
128 1 6.782148 -0.686299 -21.207201 8.080008 -2.090030 -13.071230 -4.405308 3.874996 1.282000 0.485000 134.000000 -2.537801 38.942441 0.000000 1.000000 0.011080
129 1 23.327292 -2.598433 -0.930408 10.887498 -8.431307 -8.721231 0.503444 12.500601 1.355000 0.536000 145.000000 -2.748560 31.586338 0.000000 1.000000 0.011080
130 1 21.207359 -2.314819 -2.794172 -14.224403 7.763027 -6.703143 13.578633 3.559776 1.348000 0.526000 126.000000 -1.917595 35.430945 0.965366 1.000000 0.000000
131 1 2.726130 0.406209 7.078065 3.486450 2.155218 14.441149 2.729991 3.033004 1.325000 0.515000 121.000000 -2.374726 35.430945 0.965366 1.000000 0.000000
132 8 -14.665040 8.501482 11.859253 19.116716 26.801018 8.059296 -3.651070 -4.801509 1.296000 0.533000 127.000000 -1.957578 31.586338 0.000000 1.000000 0.011080
133 10 27.775769 7.634605 19.838465 -15.228096 -2.749761 3.196200 -3.059947 2.658258 1.256000 0.469000 121.000000 -1.289603 35.096801 1.000000 0.775613 0.000000
134 1 23.889951 9.549087 1.743298 -15.524604 22.701101 -12.970789 -6.148703 0.820026 1.257000 0.459000 155.000000 -2.153648 50.478804 0.000000 1.000000 0.011080
135 1 20.358508 -8.831217 -6.814587 23.740443 2.657584 -16.423479 1.127184 -4.989153 0.967000 0.318000 94.000000 -1.853422 36.869898 1.000000 0.000000 0.000000
136 1 12.649074 -0.107394 0.343685 0.752963 -9.619674 -4.938721 12.131779 17.898315 1.292000 0.485000 118.000000 -2.305991 35.096801 1.000000 0.775613 0.000000
137 1 11.491697 -0.463027 -0.612783 -9.352070 -3.162697 -4.107335 16.714119 14.616609 1.211000 0.455000 125.000000 -1.238978 36.869898 1.000000 0.000000 0.000000
138 1 19.920448 -10.382787 -8.665492 19.284908 13.959735 -12.079535 7.655804 -7.921536 1.273000 0.477000 120.000000 -2.011260 35.096801 1.000000 0.775613 0.000000
139 1 26.734699 12.615445 3.623384 -3.566666 22.004661 -10.014458 -10.975671 6.676515 1.263000 0.474000 152.000000 -2.612376 50.478804 0.000000 1.000000 0.011080
140 4 -14.690516 1.794663 30.237465 3.518224 2.194334 0.574933 -0.027155 -2.772614 0.858000 0.357000 2181.000000 -6.276484 13.173551 0.007088 0.000000 1.000000
141 5 -7.208715 10.645317 -21.563895 6.137879 5.435835 27.231896 -2.589746 -6.521899 1.183000 0.443000 96.000000 -2.174016 46.826449 0.007088 0.000000 1.000000
142 6 -1.807008 24.240797 -12.372846 7.082904 2.518686 27.309905 -5.668453 -5.026710 1.004000 0.371000 1495.000000 -6.812445 60.000000 0.007088 0.000000 1.000000
143 4 -0.165296 26.023475 22.084889 -2.514100 -12.527335 0.212254 -1.496208 -9.384030 1.181000 0.434000 96.000000 NaN 46.826449 0.007088 0.000000 1.000000
144 5 -14.331296 -13.236947 -20.510569 -3.605962 -4.538219 9.248194 -4.668569 -4.090766 0.967000 0.399000 256.000000 -3.251916 13.173551 0.007088 0.000000 1.000000
145 6 4.101478 31.273654 9.006700 -2.416158 -13.387758 9.879573 -2.557557 -7.555685 0.950000 0.356000 622.000000 -6.645391 60.000000 0.007088 0.000000 1.000000
146 7 -37.647439 13.415349 -18.433642 -15.476510 -9.079226 -8.657001 6.327607 -0.996315 0.448000 0.232000 0.100000 -1.071192 13.173551 0.007088 0.000000 1.000000
147 7 -28.652245 32.472665 -6.792947 1.865495 -24.520050 -10.514885 -0.737914 4.305040 0.448000 0.232000 0.100000 -1.569448 46.826449 0.007088 0.000000 1.000000
148 3 18.474512 3.894072 24.176585 -16.346415 6.350028 1.476775 -4.272735 9.606294 1.336000 0.489000 131.000000 -2.649027 43.602819 1.000000 0.000000 0.000000
149 3 43.284272 -10.180268 7.840129 -10.672179 -8.504169 1.180145 -2.193530 1.135011 0.923000 0.391000 0.100000 -2.701273 10.388858 1.000000 0.000000 0.000000
150 9 46.750712 -15.701463 -0.065957 -6.882665 -5.904942 -4.446205 -4.019777 -5.389610 0.672000 0.272000 0.100000 -3.696912 10.388858 1.000000 0.000000 0.000000
151 3 30.404221 1.035483 18.528850 -15.973985 1.138714 1.593639 -2.221726 9.607799 1.275000 0.494000 139.000000 -0.952177 30.510237 1.000000 0.000000 0.000000
152 1 6.079714 -14.413719 12.588382 8.116992 1.485054 8.108721 6.370695 4.823116 1.205000 0.469000 162.000000 NaN 22.619865 1.000000 0.000000 0.000000
153 1 9.238899 -2.476215 19.467841 -4.310685 6.706470 9.233171 0.279513 8.761952 1.322000 0.495000 115.000000 -1.787608 36.869898 1.000000 0.000000 0.000000
154 3 -9.955043 -1.185564 30.775109 -2.559091 9.927541 0.676941 -3.251852 2.917181 0.883000 0.364000 997.000000 -3.083908 14.250033 1.000000 0.000000 0.000000
155 9 48.555794 -9.044574 -6.898445 -0.997100 3.923638 -14.250001 -5.291856 -6.596499 0.955000 0.345000 119.000000 -1.202707 30.510237 1.000000 0.000000 0.000000
156 9 47.190594 -14.531762 -1.321333 -5.705570 -3.889461 -6.228355 -4.366460 -5.738949 0.766000 0.303000 278.000000 -2.863301 14.250033 1.000000 0.000000 0.000000
157 2 -18.828753 5.055668 27.334088 10.382397 -4.873894 -0.540347 4.462246 -3.003354 1.088000 0.409000 152.000000 -3.198093 20.049976 0.000000 1.000000 0.011080
158 1 -2.572471 18.356321 -16.909721 2.663296 20.078512 -1.647304 18.955284 1.863299 0.945000 0.350000 0.100000 NaN 50.478804 0.000000 1.000000 0.011080
159 1 -0.836262 19.698174 -13.897181 19.020332 9.172095 -2.610471 -3.718403 17.544201 0.492000 0.212000 483.000000 -2.171381 60.000000 0.007088 0.000000 1.000000
160 2 15.201498 29.172858 16.068853 -10.085006 -13.861096 3.755771 0.628517 -9.101267 0.779000 0.290000 578.000000 -2.024802 58.992417 0.000000 1.000000 0.011080
161 2 41.606156 0.875462 9.169561 -10.206560 -11.940741 5.224075 -1.342763 -4.054871 0.980000 0.370000 0.100000 -1.730476 20.049976 0.000000 1.000000 0.011080
162 1 1.045825 7.609875 -17.058566 -9.902795 8.450495 -10.310703 9.696765 5.232237 0.854000 0.303000 0.100000 NaN 50.478804 0.000000 1.000000 0.011080
163 1 6.717069 15.393665 -10.265222 11.033143 -6.584119 -11.818137 -1.921180 14.050925 0.876000 0.344000 573.000000 -2.178953 60.000000 0.007088 0.000000 1.000000
164 2 -21.199158 31.476461 8.994917 12.956625 -24.321598 -7.813210 2.508889 2.698593 0.731000 0.289000 0.100000 -1.626788 58.992417 0.000000 1.000000 0.011080
165 8 -16.708214 2.105554 19.854473 14.203924 20.816162 2.761544 -2.749243 -3.442107 1.199000 0.479000 224.000000 -3.454598 20.049976 0.000000 1.000000 0.011080
166 8 -8.126345 20.815023 -13.172145 16.991138 20.269301 24.431594 -5.317395 -7.087104 1.188000 0.469000 83.000000 -1.942955 58.992417 0.000000 1.000000 0.011080
167 10 0.930470 13.386267 27.896671 -6.837264 -2.133929 1.187029 -3.926058 -4.851186 1.029000 0.445000 536.000000 -4.961845 34.047732 0.797574 0.000000 1.000000
168 1 -5.262752 11.286751 6.475170 -11.337960 23.343514 -7.954788 -11.472270 -5.778601 0.944000 0.327000 166.000000 -2.931819 38.213211 0.007088 0.000000 1.000000
169 1 -4.365389 1.083284 1.946755 26.091804 1.881785 -11.168138 -2.359659 -11.551892 0.908000 0.298000 41.000000 -2.460643 36.869898 1.000000 0.000000 0.000000
170 1 -9.937638 8.068506 4.552850 -5.653921 4.079111 -4.247728 -7.382926 22.622665 1.167000 0.468000 117.000000 -1.607739 34.047732 0.797574 0.000000 1.000000
171 1 -7.451518 4.741923 4.108174 9.418849 -2.377135 -4.954330 25.739156 -2.184236 1.130000 0.418000 111.000000 -1.870673 36.869898 1.000000 0.000000 0.000000
172 1 26.034757 -2.939564 -13.774877 5.133092 1.097712 4.364395 -1.157109 -8.509780 1.372000 0.514000 133.000000 -2.616748 34.047732 0.797574 0.000000 1.000000
173 1 29.155753 4.362212 -9.800802 -2.780338 5.009876 5.438667 -7.894524 -3.158312 1.007000 0.404000 221.000000 -4.258748 38.213211 0.007088 0.000000 1.000000
174 1 6.107648 9.100386 -13.346339 -7.815380 1.043739 17.441851 11.874412 12.470303 1.108000 0.396000 88.000000 -1.976019 48.189685 0.965366 1.000000 0.000000
175 1 7.888087 9.567737 -11.838152 7.459233 -8.921617 16.419249 9.934484 13.579845 1.225000 0.441000 125.000000 -2.387925 44.415309 0.797574 0.000000 1.000000
176 1 5.035025 5.682575 -23.909604 7.933228 0.618674 7.790610 -11.035911 9.781399 0.967000 0.416000 569.000000 -5.210306 44.024094 0.000000 0.734342 1.000000
177 1 11.328683 22.567022 -15.252907 -2.412229 3.223586 8.577613 13.239132 -9.047010 0.960000 0.390000 1722.000000 -6.776727 60.000000 0.007088 0.000000 1.000000
178 1 6.523224 19.056862 -10.653488 12.791242 14.778133 -0.958421 -16.373557 16.382844 0.567000 0.234000 1450.000000 -6.571283 60.000000 0.007088 0.000000 1.000000
179 1 3.529413 11.495946 -14.481158 11.172821 19.500763 -1.229955 21.329487 -11.436735 1.235000 0.468000 125.000000 NaN 52.444921 0.418430 1.000000 0.000000
180 1 -3.433182 -5.910247 11.884766 22.435390 -8.706882 -6.028489 1.934623 -1.889232 1.179000 0.455000 134.000000 -4.271559 22.980920 0.965366 1.000000 0.000000
181 1 -5.167722 2.666955 14.249016 -19.431106 15.978782 -2.626836 -3.371960 1.425313 1.325000 0.520000 137.000000 -2.470057 28.624551 1.000000 0.000000 0.885164
182 1 -8.399720 -12.582269 -1.697827 11.819936 6.829209 -8.240935 -6.045397 -5.141493 1.100000 0.436000 170.000000 -3.374361 19.188136 0.258103 0.293888 0.215587
183 1 2.192638 18.438667 18.520053 -2.442844 8.983755 -6.103577 -2.214379 -6.192507 1.183000 0.453000 176.000000 -2.468168 38.942441 0.000000 1.000000 0.011080
184 1 -4.315173 0.143689 -17.604694 15.430623 3.494496 0.797319 -7.919934 -14.585141 1.240000 0.449000 79.000000 -1.754464 38.213211 1.000000 0.000000 0.587575
185 1 2.698308 24.083384 -1.315321 -5.018995 12.923348 3.020380 -12.905186 -11.259471 1.187000 0.443000 141.000000 -2.216591 53.130102 0.000000 0.872167 1.000000
186 1 13.449722 2.772694 -10.014784 -9.643405 12.502639 0.472093 1.572674 11.309318 1.332000 0.525000 126.000000 -2.956512 48.189685 0.965366 1.000000 0.000000