ITEM: TIMESTEP
0
ITEM: NUMBER OF ATOMS
388
ITEM: BOX BOUNDS
-99.49745581 93.72226671
-79.92973591 75.85188947
-73.61019824 82.92038668
ITEM: ATOMS id type x y z x4 x5 x6 x7 x8 ENi EAl MNi Y10Ni dis axR axG axB 
1 3 -14.339093 -31.487781 3.957914 -4.460446 -1.317018 4.054492 -6.798310 7.124438 1.218000 0.463000 121.000000 -2.072744 36.869898 1.000000 0.000000 0.000000
2 9 -48.930966 -8.333923 -1.393924 14.272722 -7.211283 -7.871733 7.094980 3.217451 0.958000 0.324000 106.000000 -1.229906 36.869898 1.000000 0.000000 0.000000
3 11 42.684930 6.862019 -20.384099 18.126747 5.949537 -1.364923 -5.994732 6.592352 0.064000 0.058000 0.000000 -1.434141 60.000000 0.007088 0.000000 1.000000
4 11 17.921198 -17.502694 -23.471887 0.459338 -2.888965 -5.979706 3.147547 -5.602007 0.879000 0.324000 210.000000 -2.932945 60.000000 0.007088 0.000000 1.000000
5 11 6.338771 24.804682 -5.394920 -28.568752 14.329282 -12.387686 3.462662 3.877985 1.005000 0.307000 1489.000000 -6.353870 60.000000 0.007088 0.000000 1.000000
6 3 -1.153724 -30.344160 12.229464 -5.939256 -1.760879 2.910986 -7.016962 5.619725 1.285000 0.446000 107.000000 -0.258253 36.869898 1.000000 0.000000 0.000000
7 3 -25.664891 -30.225321 -1.198287 -1.650975 1.662758 7.394080 -1.925083 7.164853 1.201000 0.477000 134.000000 NaN 22.619865 1.000000 0.000000 0.000000
8 9 -47.058868 -15.118022 -2.927458 9.935114 -1.549164 -0.565548 8.764606 3.558586 0.884000 0.333000 151.000000 -1.141248 22.619865 1.000000 0.000000 0.000000
9 10 -0.513423 -29.490262 -8.658506 -4.701032 -2.083203 -2.585890 1.874362 -1.374521 1.144000 0.402000 91.000000 -1.954467 48.189685 0.965366 1.000000 0.000000
10 1 -13.918279 18.935023 6.612042 19.943022 12.574659 -4.349036 16.897590 -3.229354 0.978000 0.314000 114.000000 -1.872232 36.869898 1.000000 0.000000 0.000000
11 1 -8.429746 -4.960087 -9.186511 -5.681220 -21.725160 -17.040583 2.510317 2.420424 0.809000 0.327000 1749.000000 -6.676644 60.000000 0.007088 0.000000 1.000000
12 1 -15.272089 18.204520 10.272853 0.277322 5.701750 -13.344043 14.679659 -6.713426 1.298000 0.457000 104.000000 -2.732445 48.189685 0.965366 1.000000 0.000000
13 1 -12.076219 4.953227 5.108893 -9.450189 -4.721014 -20.019962 -8.189783 13.116969 0.692000 0.282000 1627.000000 -6.692644 60.000000 0.007088 0.000000 1.000000
14 1 9.797479 3.838071 -4.784529 15.011615 6.724078 13.902941 -8.477965 9.595818 1.265000 0.474000 104.000000 -4.198373 48.189685 0.965366 1.000000 0.000000
15 1 5.954377 4.980884 1.914019 -0.513647 -14.315389 23.217309 -5.032663 9.817143 1.283000 0.433000 115.000000 -1.901530 36.869898 1.000000 0.000000 0.000000
16 3 5.394324 -28.427265 17.274276 -5.397013 -0.954952 1.861200 -5.555273 4.339746 1.180000 0.459000 210.000000 -3.093125 28.072487 1.000000 0.000000 0.000000
17 9 -47.886695 -12.590143 -2.282369 11.532643 -3.597298 -3.464174 8.102081 3.311650 0.938000 0.339000 131.000000 NaN 28.072487 1.000000 0.000000 0.000000
18 1 -13.254378 11.473498 1.040537 8.078718 -8.264808 -4.681260 -21.602440 -26.832588 0.810000 0.325000 643.000000 -2.277892 60.000000 0.007088 0.000000 1.000000
19 2 35.503289 -8.207772 1.266369 11.729763 7.702178 1.630285 4.821172 -3.349255 1.160000 0.426000 76.000000 -1.549849 38.942441 0.000000 1.000000 0.011080
20 1 -8.948474 17.460056 9.827698 -4.081401 -2.331252 -12.574567 -18.202352 -7.167431 0.615000 0.256000 463.000000 -2.226736 60.000000 0.007088 0.000000 1.000000
21 2 -10.227216 -27.528749 -20.149626 -5.996922 -2.382279 -2.485692 3.367621 -2.550576 0.895000 0.307000 81.000000 -1.497986 38.942441 0.000000 1.000000 0.011080
22 1 24.002536 19.523198 -17.894846 -8.875370 2.354454 14.070888 -0.124691 5.438449 1.154000 0.466000 148.000000 -3.046184 38.942441 0.000000 1.000000 0.011080
23 1 0.059930 -2.084577 10.038411 -5.815802 5.973069 -8.043429 4.736088 -9.998367 1.234000 0.483000 125.000000 -2.550534 38.942441 0.000000 1.000000 0.011080
24 8 14.989625 12.658046 24.894109 -16.122605 5.354865 -21.826831 2.868888 7.116910 1.328000 0.525000 120.000000 -2.894982 38.942441 0.000000 1.000000 0.011080
25 4 22.577998 -21.729092 13.069380 0.942277 4.009024 -1.219808 6.143934 -3.315885 1.075000 0.441000 544.000000 -5.373041 21.786789 0.007088 0.000000 1.000000
26 5 3.595553 23.751408 0.765966 -19.873542 12.119591 5.279257 10.986141 -0.311924 1.205000 0.473000 89.000000 -3.482841 38.213211 0.007088 0.000000 1.000000
27 6 10.680527 7.477950 -15.459138 -20.197115 11.302375 -9.837836 0.852703 2.201078 1.000000 0.382000 1368.000000 -6.645391 60.000000 0.007088 0.000000 1.000000
28 4 21.195493 -21.787385 -3.780864 2.095732 1.200944 -3.493717 6.685662 -5.038420 1.187000 0.439000 106.000000 -2.236985 38.213211 0.007088 0.000000 1.000000
29 5 1.755628 23.078454 5.715623 -10.467769 8.691382 17.868969 13.575466 0.280955 1.160000 0.445000 220.000000 -1.183517 21.786789 0.007088 0.000000 1.000000
30 6 14.053108 -4.591475 -21.028627 -11.743604 6.105412 -7.677995 1.222516 -0.617317 0.978000 0.376000 1014.000000 -6.692644 60.000000 0.007088 0.000000 1.000000
31 7 36.511180 22.413212 -8.690060 6.747362 -16.967157 17.051717 3.162902 6.655767 0.489000 0.270000 0.000000 -0.519833 21.786789 0.007088 0.000000 1.000000
32 7 40.349115 16.811510 -15.565866 13.261447 -7.731519 9.194712 0.235463 6.893605 0.489000 0.270000 0.000000 -1.164239 38.213211 0.007088 0.000000 1.000000
33 2 0.458872 -25.385803 -22.051502 -4.990272 -3.632152 -5.013593 3.551265 -4.474343 0.424000 0.129000 722.000000 -1.974865 50.478804 0.000000 1.000000 0.011080
34 2 38.505456 -3.257526 -7.799287 14.905835 7.148797 0.337837 1.353846 -0.343404 0.980000 0.361000 49.000000 -1.119754 50.478804 0.000000 1.000000 0.011080
35 8 11.895480 20.976830 14.693789 -21.678798 7.794928 -22.633768 3.280481 6.348124 1.242000 0.494000 115.000000 -1.808133 50.478804 0.000000 1.000000 0.011080
36 3 -30.618711 -29.115926 -2.728568 -0.012875 3.296057 8.796432 1.269324 6.466132 1.099000 0.449000 224.000000 -0.767440 16.260205 1.000000 0.000000 0.000000
37 1 -7.737014 -13.083419 13.111307 -10.559979 13.915733 10.547419 -12.215610 -18.951754 1.306000 0.510000 116.000000 -2.057445 36.869898 1.000000 0.000000 0.000000
38 1 -30.896822 5.367465 -2.249562 14.145651 -11.892369 -7.274007 -2.972757 -1.527816 1.365000 0.501000 134.000000 -1.811432 48.189685 0.965366 1.000000 0.000000
39 9 -46.061913 -18.056587 -3.657269 8.070409 0.833368 2.808496 9.536042 3.857418 0.802000 0.314000 260.000000 -2.800494 16.260205 1.000000 0.000000 0.000000
40 3 9.263039 -26.820018 20.452406 -4.690726 0.029462 1.467893 -4.160028 3.603262 1.091000 0.421000 388.000000 -2.522235 22.619865 1.000000 0.000000 0.000000
41 3 -6.632710 -30.968746 8.754944 -5.510323 -1.686246 3.383387 -7.114344 6.315560 1.345000 0.491000 120.000000 -3.633634 43.602819 1.000000 0.000000 0.000000
42 9 -49.640186 -5.037971 -0.738389 16.404942 -10.032991 -11.193162 6.338612 3.207689 0.982000 0.338000 99.000000 -0.680665 43.602819 1.000000 0.000000 0.000000
43 10 8.966222 -28.639687 5.703412 -3.794740 -0.151251 -1.341639 0.781879 -0.495385 1.179000 0.473000 190.000000 -3.086533 33.557310 1.000000 0.000000 0.885164
44 1 -9.609517 20.221733 7.161298 -6.204101 -6.429414 -11.314543 9.648638 -6.410760 1.252000 0.472000 116.000000 -2.280432 50.478804 0.000000 1.000000 0.011080
45 1 -7.004804 12.373263 6.241834 -2.138417 2.747380 -16.204953 -14.787856 17.331911 0.603000 0.248000 1455.000000 -6.812445 60.000000 0.007088 0.000000 1.000000
46 1 -13.585337 20.914263 0.610680 24.005011 7.342534 2.763930 4.236552 5.117544 1.133000 0.433000 149.000000 -2.811413 33.557310 1.000000 0.000000 0.885164
47 1 -6.954492 -4.645290 -12.850512 0.583448 -23.607736 -8.896024 5.181791 -4.152193 0.874000 0.354000 1930.000000 -6.830794 60.000000 0.007088 0.000000 1.000000
48 1 0.991352 9.147097 5.372536 -6.869465 -26.820244 16.918320 -0.268895 5.790062 1.375000 0.515000 111.000000 -2.098828 33.557310 1.000000 0.000000 0.885164
49 1 8.893886 7.534258 -7.029410 23.780992 13.874341 0.217107 -7.176770 6.782745 1.180000 0.455000 93.000000 -1.923053 50.478804 0.000000 1.000000 0.011080
50 2 30.129090 -8.440611 -23.355761 7.296587 0.749999 -4.797462 0.244658 -2.485829 0.919000 0.331000 434.000000 -3.002556 61.927513 0.000000 0.872167 1.000000
51 2 34.630225 -4.113599 -22.823588 10.271564 2.773500 -3.625561 -1.559575 -0.296944 0.849000 0.314000 461.000000 -2.849729 61.927513 0.000000 0.872167 1.000000
52 3 -21.357189 -30.916900 0.364716 -2.841603 0.198531 6.154651 -4.326037 7.441917 1.241000 0.481000 139.000000 -1.186919 28.072487 1.000000 0.000000 0.000000
53 1 5.593945 21.781398 -14.042950 -32.316724 18.679936 -0.004100 2.232203 3.403827 0.910000 0.348000 168.000000 -2.544911 61.927513 0.000000 0.872167 1.000000
54 10 32.374000 -12.184407 -6.405759 8.587813 4.820195 -0.856158 5.809118 -2.922467 1.263000 0.476000 85.000000 -1.382223 43.233235 0.000000 1.000000 0.892487
55 1 23.310529 13.718697 6.188059 0.713606 -13.624851 9.578489 10.904892 -2.556269 1.179000 0.415000 107.000000 -1.390704 36.869898 1.000000 0.000000 0.000000
56 1 22.090673 11.404558 1.170134 8.183431 1.068366 1.312639 -15.062455 18.706233 0.682000 0.307000 158.000000 -2.618392 38.213211 0.007088 0.000000 1.000000
57 1 -14.788660 2.807430 -10.697786 -17.803653 6.246398 -1.732509 -1.788714 7.997726 0.955000 0.400000 724.000000 -5.270702 43.233235 0.000000 1.000000 0.892487
58 1 -17.030273 8.351784 -7.923267 -11.666793 15.102486 0.190191 10.921394 -4.748036 1.197000 0.466000 217.000000 -3.518630 38.213211 0.007088 0.000000 1.000000
59 1 13.167865 4.203438 -5.729699 -2.776507 -16.894358 -16.320882 2.491353 4.188166 1.254000 0.479000 113.000000 -3.824012 43.233235 0.000000 1.000000 0.892487
60 1 11.425528 19.903331 9.756214 13.163811 3.979963 -5.122701 18.276783 -4.296258 1.065000 0.365000 107.000000 -2.109159 36.869898 1.000000 0.000000 0.000000
61 3 11.816178 -25.639650 22.638693 -4.132044 0.776707 1.278424 -3.121358 3.067652 1.019000 0.407000 612.000000 -3.065297 18.924644 1.000000 0.000000 0.000000
62 9 -46.484741 -16.826884 -3.356769 8.851786 -0.163334 1.396679 9.212925 3.729582 0.844000 0.324000 202.000000 NaN 18.924644 1.000000 0.000000 0.000000
63 2 31.974963 -12.766337 11.927891 7.538209 8.110972 1.747238 6.333002 -5.151043 1.139000 0.419000 98.000000 -1.402505 26.525352 0.000000 1.000000 0.011080
64 2 -21.311989 -28.192537 -16.543739 -4.182641 1.217042 1.173971 3.870858 0.160643 0.994000 0.347000 85.000000 NaN 26.525352 0.000000 1.000000 0.011080
65 8 17.828741 1.570133 30.731704 -9.646039 3.867041 -17.796519 2.443272 5.248881 1.300000 0.516000 135.000000 -2.450389 26.525352 0.000000 1.000000 0.011080
66 4 21.810064 -22.062332 2.380327 1.726542 2.252971 -2.521087 7.060255 -4.802929 1.217000 0.444000 74.000000 -2.198766 32.204228 0.007088 0.000000 1.000000
67 5 2.365927 23.201206 4.045122 -14.151935 10.327242 13.728439 13.160467 -0.226567 1.229000 0.466000 117.000000 -3.213888 27.795773 0.007088 0.000000 1.000000
68 6 12.874449 -0.477751 -19.260132 -15.147317 8.209445 -8.421064 0.829206 0.610064 0.988000 0.384000 1196.000000 -6.676644 60.000000 0.007088 0.000000 1.000000
69 4 22.188793 -22.001416 6.942785 1.369295 3.039664 -2.043328 6.819165 -4.285971 1.157000 0.449000 160.000000 -3.613401 27.795773 0.007088 0.000000 1.000000
70 5 2.851364 23.388815 2.641575 -16.650698 11.203715 10.299211 12.493961 -0.543116 1.233000 0.447000 96.000000 -2.604501 32.204228 0.007088 0.000000 1.000000
71 6 11.946436 2.796986 -17.791147 -17.383600 9.588294 -8.987318 0.661479 1.350878 0.994000 0.378000 1395.000000 -6.830794 60.000000 0.007088 0.000000 1.000000
72 7 39.038726 19.139320 -13.880456 11.402719 -11.497138 12.340637 1.490200 6.842776 0.498000 0.283000 0.000000 -0.863603 32.204228 0.007088 0.000000 1.000000
73 7 38.067246 20.492555 -11.819761 9.601623 -13.969585 14.460106 2.193920 6.850159 0.498000 0.282000 0.000000 -0.974026 27.795773 0.007088 0.000000 1.000000
74 3 -33.375565 -28.386699 -3.540638 0.891578 4.138309 9.618020 3.198018 5.972610 1.001000 0.419000 507.000000 -0.245134 12.680383 1.000000 0.000000 0.000000
75 9 -45.429722 -19.662934 -4.147891 7.090480 2.106873 4.831198 9.856926 3.954798 0.731000 0.292000 381.000000 -3.234497 12.680383 1.000000 0.000000 0.000000
76 10 8.776444 -27.257373 -7.111725 -3.262133 -1.673124 -3.383733 3.733903 -3.503191 1.085000 0.395000 137.000000 -3.218376 44.415309 0.797574 0.000000 1.000000
77 1 -12.233291 22.937485 -4.446434 7.613083 7.828496 2.729093 -6.485039 13.300443 0.824000 0.344000 200.000000 -4.175989 38.213211 0.007088 0.000000 1.000000
78 1 -5.613059 3.422712 -13.734067 -6.783494 -11.836529 -6.430599 7.330818 -7.156511 0.935000 0.379000 1828.000000 -7.182192 60.000000 0.007088 0.000000 1.000000
79 1 1.436594 22.299782 2.489691 -9.622562 -18.013244 -1.294212 9.923507 -5.407025 1.239000 0.440000 89.000000 -1.811554 44.415309 0.797574 0.000000 1.000000
80 1 4.906321 17.763310 -2.333556 7.943292 9.282990 -11.273344 -17.942227 19.419145 0.473000 0.205000 938.000000 -6.585672 60.000000 0.007088 0.000000 1.000000
81 1 9.108478 18.873197 -4.795456 26.718582 8.477164 -3.112461 -1.076487 4.443713 1.102000 0.443000 114.000000 -4.236369 44.415309 0.797574 0.000000 1.000000
82 1 7.081451 8.923579 -6.752389 -1.831921 -30.419077 0.891714 5.983711 -3.355752 1.097000 0.400000 201.000000 -4.611188 38.213211 0.007088 0.000000 1.000000
83 1 -8.960736 18.687588 -0.578099 1.386491 -6.838154 10.296617 -11.698802 -3.101977 1.280000 0.481000 109.000000 -1.221526 48.189685 0.965366 1.000000 0.000000
84 1 -4.325061 9.073310 -12.374152 4.724830 -1.097827 -4.039479 -11.213216 -12.274722 0.941000 0.380000 1441.000000 -0.783553 60.000000 0.007088 0.000000 1.000000
85 10 29.956422 -11.876108 -16.539703 7.349184 2.008871 -3.892841 3.397889 -2.910439 1.126000 0.420000 96.000000 -1.505799 53.130102 0.000000 0.872167 1.000000
86 1 21.099356 23.113174 -0.155682 17.828092 -4.765508 4.253004 10.764117 0.585665 1.109000 0.452000 111.000000 -2.398876 28.624551 1.000000 0.000000 0.885164
87 1 23.672782 6.744067 -12.973444 6.462703 -19.115916 -4.840223 5.651697 0.537441 1.156000 0.470000 102.000000 -5.815832 38.942441 0.000000 1.000000 0.011080
88 1 -16.194405 18.088141 11.972026 5.456967 8.732073 -11.882222 3.833333 -6.492658 1.217000 0.460000 105.000000 -1.524821 48.189685 0.965366 1.000000 0.000000
89 1 -12.245974 3.973423 3.467438 -9.076559 -10.712058 -18.636947 -7.358944 1.310203 0.735000 0.298000 1727.000000 -6.676644 60.000000 0.007088 0.000000 1.000000
90 1 11.533000 13.501390 -1.096396 6.315773 18.815565 1.322784 1.558964 -3.126270 1.245000 0.488000 106.000000 -2.777400 38.942441 0.000000 1.000000 0.011080
91 1 8.066982 7.102910 -0.420220 -16.937259 -11.550321 6.495344 -3.009323 1.794114 1.274000 0.480000 104.000000 -2.001444 36.869898 0.000000 0.872167 1.000000
92 1 11.909098 9.722036 7.234903 -0.954525 -2.364655 13.174136 3.261398 -1.536814 1.153000 0.433000 107.000000 -1.921823 36.869898 1.000000 0.000000 0.000000
93 1 10.602542 3.244170 2.141315 -0.990910 3.253577 5.494624 -12.414345 8.507432 1.156000 0.451000 139.000000 -2.154510 38.942441 0.000000 1.000000 0.011080
94 10 11.388126 -27.571359 10.035269 -3.366811 0.614394 -1.023923 1.043252 -0.466265 1.133000 0.474000 317.000000 -3.345573 28.624551 1.000000 0.000000 0.885164
95 1 -3.242499 2.673468 -18.261612 -19.352122 9.131741 1.405968 6.732487 -3.062184 1.033000 0.400000 169.000000 -2.344241 53.130102 0.000000 0.872167 1.000000
96 1 -9.596279 15.956615 -8.797377 -15.684941 15.017536 11.384572 0.006465 9.869089 1.151000 0.431000 175.000000 -4.207737 38.942441 0.000000 1.000000 0.011080
97 1 -9.212295 -2.942938 -1.067411 -0.511840 4.104831 13.065089 -17.685600 -25.970273 1.234000 0.446000 126.000000 -1.811554 48.189685 0.965366 1.000000 0.000000
98 1 20.617316 28.164993 7.435505 -11.243169 -11.034893 4.407822 12.342152 -2.646368 1.251000 0.455000 94.000000 -1.822755 28.624551 1.000000 0.000000 0.885164
99 1 27.310156 14.856848 -11.509710 0.644330 6.931154 -15.588717 -7.883575 8.468655 1.106000 0.441000 116.000000 -2.709952 53.130102 0.000000 0.872167 1.000000
100 1 27.279026 14.000420 0.784403 3.811855 -4.079533 -7.519009 -10.329476 13.365459 1.142000 0.467000 116.000000 -1.742627 36.869898 0.000000 0.872167 1.000000
101 1 27.779587 15.995771 8.516127 0.876786 -10.085573 1.467251 12.583820 -3.852557 1.162000 0.400000 102.000000 -3.012675 36.869898 1.000000 0.000000 0.000000
102 1 -19.734005 -13.450870 6.067201 -10.840617 14.543766 11.187620 -10.267009 -17.816299 1.277000 0.513000 122.000000 -0.996417 36.869898 1.000000 0.000000 0.000000
103 3 13.634055 -24.730572 24.205833 -3.735091 1.321263 1.159187 -2.330347 2.689993 0.939000 0.382000 834.000000 -2.658974 16.260205 1.000000 0.000000 0.000000
104 1 -25.758328 4.104675 10.520898 -1.775383 0.721912 -10.364174 -13.103881 -16.393286 1.242000 0.468000 126.000000 -2.140977 51.683866 0.000000 1.000000 0.892487
105 1 -3.547543 12.508716 -15.080241 -26.446949 17.485174 5.369813 3.504829 2.943353 0.998000 0.389000 167.000000 -3.070456 51.683866 0.000000 1.000000 0.892487
106 1 -8.024457 8.487249 1.388793 15.989905 2.589755 0.576638 -19.333285 -20.627310 1.238000 0.477000 137.000000 -1.705398 51.683866 0.000000 1.000000 0.892487
107 1 -7.788004 2.557548 3.239350 2.803377 -15.438022 4.060600 -13.835336 -24.102800 1.035000 0.402000 106.000000 -2.279259 51.683866 0.000000 1.000000 0.892487
108 1 23.441657 7.552425 13.590398 1.419459 -4.036623 -6.357655 2.834849 -0.606429 1.044000 0.369000 79.000000 -1.391428 36.869898 1.000000 0.000000 0.000000
109 10 33.556652 -9.407588 -13.585386 9.917934 3.776491 -2.648575 3.024994 -1.552124 1.096000 0.413000 97.000000 -1.402099 51.683866 0.000000 1.000000 0.892487
110 1 19.801521 27.442235 5.022207 2.743984 -10.482480 12.825844 12.631314 -0.122153 0.916000 0.357000 143.000000 -2.508380 16.260205 1.000000 0.000000 0.000000
111 1 28.859485 3.223468 -17.685516 6.562751 -3.265306 -9.398425 0.148110 2.525371 1.098000 0.426000 139.000000 -3.895166 51.683866 0.000000 1.000000 0.892487
112 3 2.641290 -29.383835 15.025480 -5.818542 -1.490791 2.328733 -6.364417 4.915127 1.255000 0.480000 131.000000 -2.946561 31.890792 1.000000 0.000000 0.000000
113 9 -48.382414 -10.765414 -1.876756 12.694583 -5.120081 -5.423176 7.657672 3.226124 0.962000 0.345000 112.000000 -1.087850 31.890792 1.000000 0.000000 0.000000
114 2 -16.856689 -28.104236 -18.244450 -5.346340 -0.487926 -0.351545 3.398970 -0.865429 0.941000 0.334000 0.000000 -1.547121 31.586338 0.000000 1.000000 0.011080
115 1 -0.450060 13.915970 3.970706 -2.156606 -16.671664 19.010940 -13.318629 -23.324605 0.938000 0.359000 65.000000 -1.761774 38.942441 0.000000 1.000000 0.011080
116 1 7.893044 1.206765 -13.347144 14.248885 5.994515 0.584041 -21.915138 -22.326906 0.903000 0.350000 598.000000 -2.295014 60.000000 0.007088 0.000000 1.000000
117 2 33.465454 -10.989877 7.530015 9.266187 8.053420 1.861012 5.976458 -4.669082 1.191000 0.454000 93.000000 -1.681256 31.586338 0.000000 1.000000 0.011080
118 1 7.230601 23.368293 2.186467 -10.719505 -19.897432 2.196945 -1.388938 -6.559929 1.082000 0.412000 75.000000 -2.177716 38.942441 0.000000 1.000000 0.011080
119 1 11.236373 21.509331 -5.718565 10.403359 10.010818 -9.160548 -19.194667 6.783675 0.410000 0.184000 320.000000 -2.829201 60.000000 0.007088 0.000000 1.000000
120 1 -26.150837 -1.469151 -0.299362 20.731388 8.798747 -4.307601 -1.417076 4.617109 1.280000 0.504000 103.000000 -3.582719 35.430945 0.965366 1.000000 0.000000
121 1 -28.719992 -4.621337 3.898999 -0.452499 -19.944640 2.296436 1.622687 3.844877 1.343000 0.505000 166.000000 -2.680338 38.942441 0.000000 1.000000 0.011080
122 1 -1.059334 1.905872 13.347606 2.750553 7.277525 12.779067 -17.594476 -3.618082 1.310000 0.499000 105.000000 -1.938776 35.430945 0.965366 1.000000 0.000000
123 1 4.985697 -7.090132 4.325027 -2.772732 -4.273735 5.433451 -7.020067 -18.357270 1.112000 0.431000 169.000000 -5.511511 38.942441 0.000000 1.000000 0.011080
124 10 -12.303009 -30.777534 -10.194250 -4.790616 -1.001074 -1.011319 0.155584 1.699573 1.207000 0.454000 123.000000 -1.384776 35.430945 0.965366 1.000000 0.000000
125 1 -27.127578 1.865207 8.181242 3.232458 -12.283107 6.045405 5.063964 1.949494 1.309000 0.521000 140.000000 -1.987920 31.586338 0.000000 1.000000 0.011080
126 1 -22.102836 -7.775730 1.262404 12.391676 3.386281 -6.133189 -8.815671 10.395648 1.332000 0.507000 150.000000 -2.853886 38.942441 0.000000 1.000000 0.011080
127 1 -7.081160 0.866700 -9.460503 3.836818 -15.791147 -4.994851 -3.251600 -8.694910 0.900000 0.364000 1734.000000 -7.082109 60.000000 0.007088 0.000000 1.000000
128 1 -12.863597 19.377748 -1.996142 16.114919 -0.514805 3.338161 -5.210022 -2.340347 1.282000 0.485000 134.000000 -2.537801 38.942441 0.000000 1.000000 0.011080
129 1 -18.505292 -4.233199 -1.022467 17.279544 11.368454 5.337825 -3.571751 7.140345 1.355000 0.536000 145.000000 -2.748560 31.586338 0.000000 1.000000 0.011080
130 1 -21.112184 -6.269166 3.150277 -2.466169 -16.013851 12.476870 -0.070087 6.332478 1.348000 0.526000 126.000000 -1.917595 35.430945 0.965366 1.000000 0.000000
131 1 0.778128 -5.288051 7.332896 -11.876854 11.638436 6.882715 -5.531922 -7.643368 1.325000 0.515000 121.000000 -2.374726 35.430945 0.965366 1.000000 0.000000
132 8 16.548363 6.028201 28.993268 -12.452053 4.507017 -19.841007 2.774102 6.119767 1.296000 0.533000 127.000000 -1.957578 31.586338 0.000000 1.000000 0.011080
133 10 -13.021423 -31.483446 -5.711729 -4.347308 -0.725948 0.274123 -1.726238 3.409364 1.256000 0.469000 121.000000 -1.289603 35.096801 1.000000 0.775613 0.000000
134 1 -21.734808 -10.211302 6.361740 -1.596144 -21.207661 -11.142543 -5.494904 8.624991 1.257000 0.459000 155.000000 -2.153648 50.478804 0.000000 1.000000 0.011080
135 1 -23.587816 7.827361 10.802509 23.769967 9.951538 -6.669831 11.634734 -4.604572 0.967000 0.318000 94.000000 -1.853422 36.869898 1.000000 0.000000 0.000000
136 1 -7.675206 -4.178432 -0.370751 9.692867 4.860425 17.384206 -6.673998 9.732754 1.292000 0.485000 118.000000 -2.305991 35.096801 1.000000 0.775613 0.000000
137 1 -8.742839 -4.831731 1.273728 1.863297 -6.094873 20.223180 -5.760495 9.817197 1.211000 0.455000 125.000000 -1.238978 36.869898 1.000000 0.000000 0.000000
138 1 -26.472274 10.749546 15.795579 12.282743 1.238617 -6.480745 11.915980 -4.787267 1.273000 0.477000 120.000000 -2.011260 35.096801 1.000000 0.775613 0.000000
139 1 -21.643713 -9.269279 6.839566 1.564824 -8.685600 -18.381675 -9.540981 10.231484 1.263000 0.474000 152.000000 -2.612376 50.478804 0.000000 1.000000 0.011080
140 4 23.159151 -20.899690 21.552593 0.344355 4.838153 -0.135240 4.834130 -1.801535 0.858000 0.357000 2181.000000 -6.276484 13.173551 0.007088 0.000000 1.000000
141 5 4.532718 24.454959 -1.954898 -24.006375 13.104318 -2.122785 8.235651 0.901455 1.183000 0.443000 96.000000 -2.174016 46.826449 0.007088 0.000000 1.000000
142 6 8.698897 14.447494 -11.926587 -23.828879 13.340493 -11.203969 1.595858 3.198751 1.004000 0.371000 1495.000000 -6.812445 60.000000 0.007088 0.000000 1.000000
143 4 20.121035 -20.534895 -12.324386 1.677979 -0.338552 -4.825224 5.897556 -5.191592 1.181000 0.434000 96.000000 NaN 46.826449 0.007088 0.000000 1.000000
144 5 1.092947 22.985476 8.181558 -4.781931 6.290690 22.900830 13.305230 1.291433 0.967000 0.399000 256.000000 -3.251916 13.173551 0.007088 0.000000 1.000000
145 6 15.687224 -10.073203 -22.793557 -6.800136 2.660131 -6.710210 1.853035 -2.563368 0.950000 0.356000 622.000000 -6.645391 60.000000 0.007088 0.000000 1.000000
146 7 34.019795 24.777976 -4.086758 2.313771 -21.090380 20.573497 4.172354 6.191206 0.448000 0.232000 0.000000 -1.071192 13.173551 0.007088 0.000000 1.000000
147 7 41.724382 12.724750 -17.570674 15.495704 -2.114006 5.038681 -2.261229 7.202580 0.448000 0.232000 0.000000 -1.569448 46.826449 0.007088 0.000000 1.000000
148 3 -8.911227 -31.194596 7.293094 -5.314102 -1.649827 3.569972 -7.152383 6.616165 1.336000 0.489000 131.000000 -2.649027 43.602819 1.000000 0.000000 0.000000
149 3 -35.125090 -27.884165 -4.025520 1.442210 4.654383 10.111938 4.470085 5.643595 0.923000 0.391000 0.000000 -2.701273 10.388858 1.000000 0.000000 0.000000
150 9 -44.984369 -20.683628 -4.495886 6.511453 2.911355 6.172429 10.014254 3.992488 0.672000 0.272000 0.000000 -3.696912 10.388858 1.000000 0.000000 0.000000
151 3 -19.422732 -31.144999 1.277392 -3.314018 -0.339873 5.550216 -5.177880 7.423557 1.275000 0.494000 139.000000 -0.952177 30.510237 1.000000 0.000000 0.000000
152 1 -6.532300 -10.227564 18.565847 -1.991400 15.837895 11.913569 -2.338438 -15.759230 1.205000 0.469000 162.000000 NaN 22.619865 1.000000 0.000000 0.000000
153 1 -4.768523 -20.657798 12.945183 -9.483121 7.387149 7.463024 -10.420726 -9.853533 1.322000 0.495000 115.000000 -1.787608 36.869898 1.000000 0.000000 0.000000
154 3 15.004425 -24.025723 25.370717 -3.476863 1.745148 1.049349 -1.726763 2.409716 0.883000 0.364000 997.000000 -3.083908 14.250033 1.000000 0.000000 0.000000
155 9 -48.225749 -11.438326 -2.005998 12.256881 -4.541549 -4.745810 7.813617 3.230850 0.955000 0.345000 119.000000 -1.202707 30.510237 1.000000 0.000000 0.000000
156 9 -45.721368 -18.966638 -3.914892 7.502362 1.564156 3.920116 9.732967 3.918799 0.766000 0.303000 278.000000 -2.863301 14.250033 1.000000 0.000000 0.000000
157 2 29.909246 -14.852098 17.518768 5.273957 7.852063 1.578395 6.406247 -5.222219 1.088000 0.409000 152.000000 -3.198093 20.049976 0.000000 1.000000 0.011080
158 1 0.780957 21.032908 5.718519 -9.985414 -14.287304 -4.006878 -7.127227 -6.796938 0.945000 0.350000 0.000000 NaN 50.478804 0.000000 1.000000 0.011080
159 1 2.484851 21.057492 0.636148 4.972899 6.877036 -10.790649 -20.576575 4.107295 0.492000 0.212000 483.000000 -2.171381 60.000000 0.007088 0.000000 1.000000
160 2 8.109722 -22.497522 -22.842107 -3.415249 -3.822457 -5.676990 3.631483 -5.434351 0.779000 0.290000 578.000000 -2.024802 58.992417 0.000000 1.000000 0.011080
161 2 -26.896340 -28.006383 -14.046621 -2.520294 3.262524 3.414675 4.975730 1.195634 0.980000 0.370000 0.000000 -1.730476 20.049976 0.000000 1.000000 0.011080
162 1 -6.121588 12.579559 0.485845 0.620018 -18.509692 9.033728 -16.681386 -27.250047 0.854000 0.303000 0.000000 NaN 50.478804 0.000000 1.000000 0.011080
163 1 -0.832379 8.846445 -8.588634 16.669277 3.418018 -2.614112 -24.121978 -24.555303 0.876000 0.344000 573.000000 -2.178953 60.000000 0.007088 0.000000 1.000000
164 2 40.461148 0.853926 -13.766971 16.668239 6.661401 -0.480763 -1.569137 2.320820 0.731000 0.289000 0.000000 -1.626788 58.992417 0.000000 1.000000 0.011080
165 8 19.493698 -3.885066 32.322307 -6.347213 3.355178 -14.220523 2.315622 4.340597 1.199000 0.479000 224.000000 -3.454598 20.049976 0.000000 1.000000 0.011080
166 8 8.877047 23.934060 5.802722 -25.053776 10.940812 -19.863563 3.950192 5.071293 1.188000 0.469000 83.000000 -1.942955 58.992417 0.000000 1.000000 0.011080
167 10 12.882167 -27.054983 2.791650 -2.089538 0.034345 -2.259127 3.446764 -2.842055 1.029000 0.445000 536.000000 -4.961845 34.047732 0.797574 0.000000 1.000000
168 1 3.839249 -3.694152 13.404793 -6.705832 -19.964169 -11.176490 -2.478121 7.873894 0.944000 0.327000 166.000000 -2.931819 38.213211 0.007088 0.000000 1.000000
169 1 6.003187 8.919414 17.301155 18.335037 11.311520 -10.470483 15.298245 -7.971990 0.908000 0.298000 41.000000 -2.460643 36.869898 1.000000 0.000000 0.000000
170 1 10.314052 -0.905443 9.378234 3.327246 0.802741 8.038129 -16.191402 18.277593 1.167000 0.468000 117.000000 -1.607739 34.047732 0.797574 0.000000 1.000000
171 1 13.089482 4.338426 9.759900 4.142283 -5.161616 11.806588 6.699251 -2.498714 1.130000 0.418000 111.000000 -1.870673 36.869898 1.000000 0.000000 0.000000
172 1 -27.398292 4.117586 -4.055543 -0.669080 8.946897 -4.358070 12.236909 -5.143144 1.372000 0.514000 133.000000 -2.616748 34.047732 0.797574 0.000000 1.000000
173 1 -25.147952 -1.842870 -7.067647 -7.850426 -1.352543 -6.407069 -1.238890 8.385458 1.007000 0.404000 221.000000 -4.258748 38.213211 0.007088 0.000000 1.000000
174 1 -5.466917 9.923084 -7.627472 -18.090868 1.516239 14.698974 -4.368834 9.846613 1.108000 0.396000 88.000000 -1.976019 48.189685 0.965366 1.000000 0.000000
175 1 -3.335230 10.542234 -10.364802 -7.329494 16.156981 10.076740 -2.375671 5.757269 1.225000 0.441000 125.000000 -2.387925 44.415309 0.797574 0.000000 1.000000
176 1 -9.148755 22.944567 -6.611575 -3.078027 8.619772 0.183343 -9.140521 14.789163 0.967000 0.416000 569.000000 -5.210306 44.024094 0.000000 0.734342 1.000000
177 1 -4.425009 9.511147 -12.444254 -12.127272 -3.844800 -5.933023 8.285331 -7.532413 0.960000 0.390000 1722.000000 -6.776727 60.000000 0.007088 0.000000 1.000000
178 1 -3.754104 14.500843 4.231354 1.346135 4.722559 -14.567857 -16.342823 18.678953 0.567000 0.234000 1450.000000 -6.571283 60.000000 0.007088 0.000000 1.000000
179 1 -6.279955 20.902050 5.759794 -7.271098 -10.677687 -9.006465 9.574884 -6.392900 1.235000 0.468000 125.000000 NaN 52.444921 0.418430 1.000000 0.000000
180 1 7.469155 -2.846466 14.999456 18.472151 18.747920 2.045330 9.766783 -7.203197 1.179000 0.455000 134.000000 -4.271559 22.980920 0.965366 1.000000 0.000000
181 1 4.134573 -14.001145 16.419254 -9.475149 -15.769865 7.087347 -2.286864 6.266527 1.325000 0.520000 137.000000 -2.470057 28.624551 1.000000 0.000000 0.885164
182 1 0.831787 10.181266 23.820640 10.305591 4.581463 3.628227 6.297093 1.445848 1.100000 0.436000 170.000000 -3.374361 19.188136 0.258103 0.293888 0.215587
183 1 8.967026 -15.596270 6.030202 -0.123707 -8.889774 -10.596557 2.337814 -0.924123 1.183000 0.453000 176.000000 -2.468168 38.942441 0.000000 1.000000 0.011080
184 1 -1.457659 21.771090 10.874372 4.958980 10.805602 -5.692004 19.608208 -5.015207 1.240000 0.449000 79.000000 -1.754464 38.213211 1.000000 0.000000 0.587575
185 1 3.388061 1.996727 -6.903125 -10.638002 -9.992286 -19.959422 0.960359 5.032105 1.187000 0.443000 141.000000 -2.216591 53.130102 0.000000 0.872167 1.000000
186 1 -16.898292 4.039492 5.496621 -7.106508 -7.887965 9.269171 -11.502034 -4.605480 1.332000 0.525000 126.000000 -2.956512 48.189685 0.965366 1.000000 0.000000